data_6066-TOPOS_154_Ca2Sb
_database_code_ICSD                 154
_audit_creation_date                2024-03-26
_audit_creation_method              ToposPro
_chemical_formula_structural        Ca2Sb
_chemical_name_systematic
;
Calcium antimony (2/1).. 
;
_chemical_formula_sum               'Ca2 Sb'
_citation_journal_abbrev            'Acta Crystallographica B (24,1968-38,1982)'
_citation_year                      1975
_citation_journal_volume            31
_citation_page_first                427
_citation_page_last                 430
_citation_special_details
;
Citation details: Title: Etude structurale de Ca2 Sb. File: YourCusto
mFileName1.cif.. File: cured.cif. 
CENTAT: none
LIGAND: SbCa2[3D-]*

ATOMLIG: Ca1#1 Ca2#1 Ca3#1 Sb1#1 Sb2#1
SIMPPAR: METH=Stand; INTRA=
V
;
loop_
_publ_author_name
'Hamon C.'
'Marchand R.'
'Haridon P.'
'Laurent Y.'
_cell_length_a                      4.69
_cell_length_b                      4.69
_cell_length_c                      16.39
_cell_angle_alpha                   90
_cell_angle_beta                    90
_cell_angle_gamma                   90
_cell_volume                        360.5161
_cell_formula_units_z               4
_symmetry_space_group_name_h-m      'I 4 m m'
_symmetry_int_tables_number         107
_refine_ls_r_factor_all             0
loop_
_space_group_symop_id
_space_group_symop_operation_xyz
1 x,y,z
2 -x,-y,z
3 -y,x,z
4 y,-x,z
5 -x,y,z
6 x,-y,z
7 y,x,z
8 -y,-x,z
9 1/2+x,1/2+y,1/2+z
10 1/2-x,1/2-y,1/2+z
11 1/2-y,1/2+x,1/2+z
12 1/2+y,1/2-x,1/2+z
13 1/2-x,1/2+y,1/2+z
14 1/2+x,1/2-y,1/2+z
15 1/2+y,1/2+x,1/2+z
16 1/2-y,1/2-x,1/2+z
loop_
_atom_site_label
_atom_site_type_symbol
_atom_site_symmetry_multiplicity
_atom_site_fract_x
_atom_site_fract_y
_atom_site_fract_z
_atom_site_occupancy
Ca1 Ca 2 0.00000 0.00000 0.32380 1.0000
Ca2 Ca 2 0.00000 0.00000 0.65800 1.0000
Ca3 Ca 4 0.00000 0.50000 0.00000 1.0000
Sb1 Sb 2 0.00000 0.00000 0.13220 1.0000
Sb2 Sb 2 0.00000 0.00000 0.85490 1.0000
#End of data_6066-TOPOS_154_Ca2Sb

