data_15-TOPOS_100042_MoS2
_database_code_ICSD                 100042
_audit_creation_date                2024-03-26
_audit_creation_method              ToposPro
_chemical_formula_structural        MoS2
_chemical_name_systematic
;
Molybdenum sulfide (1/1/2).. 
;
_chemical_formula_sum               'Mo S2'
_citation_journal_abbrev            'Journal of Materials Science. Letters'
_citation_year                      1984
_citation_journal_volume            3
_citation_page_first                671
_citation_page_last                 673
_citation_special_details
;
Citation details: Title: Synthesis and characterization of indium int
ercalation compound of MoS$_2$, In$_x$ MoS$_2$ (0$\leq$x$\leq$1). Fil
e: YourCustomFileName9.cif. 
CENTAT: none
LIGAND: MoS2[2D-]
ATOMLI
G: S1#1 Mo1#1
SIMPPAR: METH=Stand; INTRA=V
;
loop_
_publ_author_name
'Srivastava SUNEEL KU'
'Avasthi BHOLA NATH'
'Mathur BALBIR KUMAR'
_cell_length_a                      3.14
_cell_length_b                      3.14
_cell_length_c                      12.3
_cell_angle_alpha                   90
_cell_angle_beta                    90
_cell_angle_gamma                   120
_cell_volume                        105.0256
_cell_formula_units_z               2
_symmetry_space_group_name_h-m      'P 63/m m c'
_symmetry_int_tables_number         194
_refine_ls_r_factor_all             0
loop_
_space_group_symop_id
_space_group_symop_operation_xyz
1 x,y,z
2 -x,-y,1/2+z
3 -y,x-y,z
4 -x+y,-x,z
5 x-y,x,1/2+z
6 y,-x+y,1/2+z
7 x-y,-y,-z
8 -x,-x+y,-z
9 y,x,-z
10 -y,-x,1/2-z
11 x,x-y,1/2-z
12 -x+y,y,1/2-z
13 -x,-y,-z
14 x,y,1/2-z
15 y,-x+y,-z
16 x-y,x,-z
17 -x+y,-x,1/2-z
18 -y,x-y,1/2-z
19 -x+y,y,z
20 x,x-y,z
21 -y,-x,z
22 y,x,1/2+z
23 -x,-x+y,1/2+z
24 x-y,-y,1/2+z
loop_
_atom_site_label
_atom_site_type_symbol
_atom_site_symmetry_multiplicity
_atom_site_fract_x
_atom_site_fract_y
_atom_site_fract_z
_atom_site_occupancy
S1 S 4 0.33333 0.66667 0.62800 1.0000
Mo1 Mo 2 0.33333 0.66667 0.25000 1.0000
#End of data_15-TOPOS_100042_MoS2

